============================== echo of input deck ==============================
echo

start molecule

title "mol2"
charge 0

geometry units angstroms print xyz autosym
   C       -0.54968        2.90882       -0.11840
   C        0.42913        2.00236       -0.03217
   C        1.84347        2.25767       -0.17858
   C        2.77002        1.30379       -0.07680
   F        4.07828        1.58454       -0.22007
   H        0.13952        0.97176        0.16720
   H        2.17571        3.27246       -0.38138
   H        2.61755        0.25260        0.11980
  Cl       -0.35184        4.58308       -0.42184
   H       -1.59526        2.65161        0.00167
end

basis
  * library 6-31G*
end

task scf optimize
================================================================================

         Total SCF energy =   -712.666302361337
@ Step       Energy      Delta E   Gmax     Grms     Xrms     Xmax   Walltime
@ ---- ---------------- -------- -------- -------- -------- -------- --------
@    0    -712.66630236  0.0D+00  0.02537  0.00788  0.00000  0.00000      8.9
         Total SCF energy =-138111.230487610359
         Total SCF energy =   -712.664041315297
@    1    -712.66404132  2.3D-03  0.05168  0.01382  0.06121  0.16215     70.9
         Total SCF energy =-132950.176423203142
         Total SCF energy = -72154.110429745706
@    2  -72154.11042975 -7.1D+04******************  0.03592  0.08787    127.0
         Total SCF energy =   -712.664394958669
         Total SCF energy =   -712.668661214958
@    3    -712.66866121  7.1D+04  0.00382  0.00083  0.00691  0.01721    144.0
         Total SCF energy =   -712.668685006383
         Total SCF energy =   -712.668685006383
@    4    -712.66868501 -2.4D-05  0.00052  0.00015  0.00941  0.02444    151.9
         Total SCF energy =   -712.668687977868

 Vector   36  Occ=0.000000D+00  E= 4.838242D-01

 Vector   37  Occ=0.000000D+00  E= 5.004153D-01

         Total SCF energy =   -712.668688207268

 Vector   12  Occ=2.000000D+00  E=-1.166685D+00

 Vector   13  Occ=2.000000D+00  E=-1.094555D+00

 Vector   14  Occ=2.000000D+00  E=-1.003897D+00

 Vector   15  Occ=2.000000D+00  E=-8.557871D-01

 Vector   16  Occ=2.000000D+00  E=-7.869308D-01

 Vector   17  Occ=2.000000D+00  E=-7.315249D-01

 Vector   18  Occ=2.000000D+00  E=-7.105246D-01

 Vector   19  Occ=2.000000D+00  E=-6.949184D-01

 Vector   20  Occ=2.000000D+00  E=-6.427788D-01

 Vector   21  Occ=2.000000D+00  E=-6.063718D-01

 Vector   22  Occ=2.000000D+00  E=-5.654975D-01

 Vector   23  Occ=2.000000D+00  E=-5.272210D-01

 Vector   24  Occ=2.000000D+00  E=-5.194669D-01

 Vector   25  Occ=2.000000D+00  E=-4.542066D-01

 Vector   26  Occ=2.000000D+00  E=-4.379357D-01

 Vector   27  Occ=2.000000D+00  E=-3.305736D-01

 Vector   28  Occ=0.000000D+00  E= 1.171910D-01

 Vector   29  Occ=0.000000D+00  E= 2.112922D-01

 Vector   30  Occ=0.000000D+00  E= 2.365288D-01

 Vector   31  Occ=0.000000D+00  E= 2.464402D-01

 Vector   32  Occ=0.000000D+00  E= 2.789884D-01

 Vector   33  Occ=0.000000D+00  E= 2.972862D-01

 Vector   34  Occ=0.000000D+00  E= 3.147660D-01

 Vector   35  Occ=0.000000D+00  E= 3.754464D-01

 Vector   36  Occ=0.000000D+00  E= 4.838572D-01

 Vector   37  Occ=0.000000D+00  E= 5.004905D-01

@    5    -712.66868821 -3.2D-06  0.00034  0.00010  0.00414  0.01129    162.2
         Total SCF energy =   -712.668688424194

 Vector   12  Occ=2.000000D+00  E=-1.166641D+00

 Vector   13  Occ=2.000000D+00  E=-1.094574D+00

 Vector   14  Occ=2.000000D+00  E=-1.003897D+00

 Vector   15  Occ=2.000000D+00  E=-8.558426D-01

 Vector   16  Occ=2.000000D+00  E=-7.869453D-01

 Vector   17  Occ=2.000000D+00  E=-7.315758D-01

 Vector   18  Occ=2.000000D+00  E=-7.105485D-01

 Vector   19  Occ=2.000000D+00  E=-6.949560D-01

 Vector   20  Occ=2.000000D+00  E=-6.428166D-01

 Vector   21  Occ=2.000000D+00  E=-6.063697D-01

 Vector   22  Occ=2.000000D+00  E=-5.655393D-01

 Vector   23  Occ=2.000000D+00  E=-5.271660D-01

 Vector   24  Occ=2.000000D+00  E=-5.194381D-01

 Vector   25  Occ=2.000000D+00  E=-4.542026D-01

 Vector   26  Occ=2.000000D+00  E=-4.379504D-01

 Vector   27  Occ=2.000000D+00  E=-3.305685D-01

 Vector   28  Occ=0.000000D+00  E= 1.171447D-01

 Vector   29  Occ=0.000000D+00  E= 2.112666D-01

 Vector   30  Occ=0.000000D+00  E= 2.365353D-01

 Vector   31  Occ=0.000000D+00  E= 2.464733D-01

 Vector   32  Occ=0.000000D+00  E= 2.789885D-01

 Vector   33  Occ=0.000000D+00  E= 2.972833D-01

 Vector   34  Occ=0.000000D+00  E= 3.147972D-01

 Vector   35  Occ=0.000000D+00  E= 3.754336D-01

 Vector   36  Occ=0.000000D+00  E= 4.839657D-01

 Vector   37  Occ=0.000000D+00  E= 5.004598D-01

         Total SCF energy =   -712.668688424194
@    6    -712.66868842 -2.2D-07  0.00033  0.00009  0.00101  0.00294    169.8
         Total SCF energy =   -712.668688453592

 Vector   12  Occ=2.000000D+00  E=-1.166634D+00

 Vector   13  Occ=2.000000D+00  E=-1.094562D+00

 Vector   14  Occ=2.000000D+00  E=-1.003904D+00

 Vector   15  Occ=2.000000D+00  E=-8.558397D-01

 Vector   16  Occ=2.000000D+00  E=-7.869401D-01

 Vector   17  Occ=2.000000D+00  E=-7.315822D-01

 Vector   18  Occ=2.000000D+00  E=-7.105573D-01

 Vector   19  Occ=2.000000D+00  E=-6.949563D-01

 Vector   20  Occ=2.000000D+00  E=-6.428148D-01

 Vector   21  Occ=2.000000D+00  E=-6.063545D-01

 Vector   22  Occ=2.000000D+00  E=-5.655394D-01

 Vector   23  Occ=2.000000D+00  E=-5.271695D-01

 Vector   24  Occ=2.000000D+00  E=-5.194328D-01

 Vector   25  Occ=2.000000D+00  E=-4.542042D-01

 Vector   26  Occ=2.000000D+00  E=-4.379452D-01

 Vector   27  Occ=2.000000D+00  E=-3.305738D-01

 Vector   28  Occ=0.000000D+00  E= 1.171496D-01

 Vector   29  Occ=0.000000D+00  E= 2.112511D-01

 Vector   30  Occ=0.000000D+00  E= 2.365444D-01

 Vector   31  Occ=0.000000D+00  E= 2.464746D-01

 Vector   32  Occ=0.000000D+00  E= 2.790000D-01

 Vector   33  Occ=0.000000D+00  E= 2.972802D-01

 Vector   34  Occ=0.000000D+00  E= 3.148011D-01

 Vector   35  Occ=0.000000D+00  E= 3.754345D-01

 Vector   36  Occ=0.000000D+00  E= 4.839575D-01

 Vector   37  Occ=0.000000D+00  E= 5.004804D-01

       Multipole analysis of the density wrt the origin
       ------------------------------------------------

     L   x y z        total         open         nuclear
     -   - - -        -----         ----         -------
     0   0 0 0     -0.000000      0.000000     54.000000

     1   1 0 0     -0.995140      0.000000     -0.302217
     1   0 1 0     -0.156272      0.000000     -0.320555
     1   0 0 1      0.001736      0.000000     -0.126957

     2   2 0 0    -27.501914      0.000000    116.833310
     2   1 1 0      1.252875      0.000000      2.319303
     2   1 0 1     -0.004182      0.000000     -0.224393
     2   0 2 0    -33.489888      0.000000    819.598747
     2   0 1 1      0.001740      0.000000     -0.502143

         Total SCF energy =   -712.668688453592
@    7    -712.66868845 -2.9D-08  0.00032  0.00008  0.00027  0.00060    183.0
@    7    -712.66868845 -2.9D-08  0.00032  0.00008  0.00027  0.00060    183.0

 Output coordinates in angstroms (scale by  1.889725989 to convert to a.u.)

  No.       Tag          Charge          X              Y              Z
 ---- ---------------- ---------- -------------- -------------- --------------
    1 C                    6.0000    -0.88784448     1.43184473    -0.00048408
    2 C                    6.0000    -1.04278803     0.12177551     0.00117262
    3 C                    6.0000     0.00997070    -0.89188114     0.00027008
    4 C                    6.0000    -0.27627692    -2.17619385     0.00002959
    5 F                    9.0000     0.66989099    -3.10359866    -0.00077578
    6 H                    1.0000    -2.06121188    -0.22941712     0.00316548
    7 H                    1.0000     1.03821343    -0.58339841    -0.00045217
    8 H                    1.0000    -1.26121334    -2.60146930     0.00043874
    9 Cl                  17.0000     0.64657888     2.24427598    -0.00410094
   10 H                    1.0000    -1.71494227     2.11107944     0.00043373

 Total times  cpu:      165.6s     wall:      183.0s
